 Entering Gaussian System
 *********************************************
 Gaussian 98:
 frequency output generated by the xtb code
 *********************************************
                         Standard orientation:
 --------------------------------------------------------------------
  Center     Atomic     Atomic              Coordinates (Angstroms)
  Number     Number      Type              X           Y           Z
 --------------------------------------------------------------------
    1         16             0        0.000000    0.000000    0.000000
    2          6             0        3.904269   -2.323350    0.213860
    3          6             0        3.886676   -0.928400    0.078628
    4          6             0        2.688179   -0.244794    0.015801
    5          6             0        1.474976   -0.933978    0.086246
    6          6             0        1.486659   -2.322088    0.220889
    7          6             0        2.685565   -3.009194    0.283966
    8          6             0        9.826193   -5.728191    0.525856
    9          6             0        9.834500   -4.332871    0.398253
   10          6             0        8.622723   -3.641305    0.334846
   11          6             0        7.410809   -4.332659    0.397932
   12          6             0        7.418833   -5.727978    0.525544
   13          6             0        8.622449   -6.412105    0.588241
   14          6             0       15.758900   -2.323302    0.211219
   15          6             0       15.770367   -0.934323    0.085907
   16          6             0       14.557060   -0.244416    0.025050
   17          6             0       13.358667   -0.928190    0.088085
   18          6             0       13.341280   -2.324020    0.214018
   19          6             0       14.560097   -3.010566    0.274594
   20          1             0        4.823329   -0.385345    0.023164
   21          1             0        2.684264    0.834306   -0.088931
   22          1             0        0.551226   -2.868873    0.276713
   23          1             0        2.684340   -4.088314    0.388668
   24          1             0       10.765690   -6.266296    0.575163
   25          1             0        8.622828   -2.562015    0.236154
   26          1             0        6.479240   -6.265924    0.574588
   27          1             0        8.622344   -7.492285    0.687003
   28          1             0       16.694417   -2.870657    0.259527
   29          1             0       14.560805    0.835364   -0.072372
   30          1             0       12.421919   -0.384575    0.040097
   31          1             0       14.561501   -4.090366    0.372006
   32          6             0        6.182073   -3.627292    0.333215
   33          6             0        5.132026   -3.026467    0.278437
   34          6             0       12.113586   -3.027213    0.278753
   35          6             0       11.063353   -3.627688    0.333838
   36         16             0       17.245202   -0.000090   -0.000060
   37          1             0       -0.846585   -1.017925    0.101385
   38          1             0       18.091967   -1.018845    0.091099
 --------------------------------------------------------------------
     1 basis functions        1 primitive gaussians
     1 alpha electrons        1 beta electrons
 
 Harmonic frequencies (cm**-1), IR intensities (km*mol⁻¹),
 Raman scattering activities (A**4/amu), Raman depolarization ratios,
 reduced masses (AMU), force constants (mDyne/A) and normal coordinates:
                      1                      2                      3
                        a                      a                      a 
 Frequencies --    11.7111                13.8197                14.1691
 Red. masses --    20.7570                10.4306                10.0481
 Frc consts  --     0.0000                 0.0000                 0.0000
 IR Inten    --     0.1074                 0.9242                 0.3107
 Raman Activ --     0.0000                 0.0000                 0.0000
 Depolar     --     0.0000                 0.0000                 0.0000
 Atom AN      X      Y      Z        X      Y      Z        X      Y      Z
   1  16    -0.35  -0.33   0.03     0.00  -0.01  -0.10    -0.00   0.01   0.14
   2   6    -0.07   0.04  -0.00     0.00   0.00   0.02    -0.00  -0.00  -0.02
   3   6    -0.16   0.04  -0.00     0.00   0.04   0.41    -0.00   0.01   0.12
   4   6    -0.20  -0.03   0.00     0.00   0.04   0.38    -0.00   0.01   0.15
   5   6    -0.16  -0.11   0.01     0.00  -0.00  -0.04    -0.00   0.00   0.04
   6   6    -0.07  -0.11   0.01    -0.00  -0.04  -0.43    -0.00  -0.01  -0.10
   7   6    -0.03  -0.03   0.00    -0.00  -0.04  -0.40    -0.00  -0.01  -0.13
   8   6    -0.00   0.16  -0.01     0.00   0.00   0.06    -0.00  -0.00  -0.02
   9   6    -0.00   0.16  -0.01    -0.00   0.01   0.08     0.00  -0.00  -0.03
  10   6     0.00   0.16  -0.01    -0.00   0.01   0.09     0.00  -0.00  -0.05
  11   6     0.00   0.16  -0.01     0.00   0.01   0.07     0.00  -0.00  -0.05
  12   6     0.00   0.16  -0.01     0.00   0.00   0.05    -0.00  -0.00  -0.04
  13   6    -0.00   0.16  -0.01     0.00   0.00   0.05    -0.00  -0.00  -0.03
  14   6     0.07  -0.11   0.01    -0.00  -0.01  -0.13     0.00   0.04   0.42
  15   6     0.16  -0.11   0.01    -0.00  -0.00  -0.06     0.00   0.00   0.02
  16   6     0.20  -0.03   0.01    -0.00   0.01   0.06     0.00  -0.04  -0.40
  17   6     0.16   0.04   0.00    -0.00   0.01   0.10     0.00  -0.04  -0.41
  18   6     0.07   0.04  -0.00    -0.00   0.00   0.03     0.00  -0.00  -0.01
  19   6     0.03  -0.03  -0.00    -0.00  -0.01  -0.09     0.00   0.04   0.41
  20   1    -0.06   0.03  -0.00     0.00   0.02   0.21    -0.00   0.01   0.06
  21   1    -0.08  -0.01   0.00     0.00   0.02   0.20    -0.00   0.01   0.07
  22   1    -0.01  -0.05   0.00    -0.00  -0.02  -0.22    -0.00  -0.01  -0.05
  23   1     0.01  -0.01   0.00    -0.00  -0.02  -0.20     0.00  -0.01  -0.07
  24   1    -0.00   0.05  -0.00     0.00   0.00   0.02    -0.00   0.00  -0.00
  25   1     0.00   0.05  -0.00    -0.00   0.00   0.03     0.00  -0.00  -0.02
  26   1     0.00   0.05  -0.00     0.00   0.00   0.01    -0.00  -0.00  -0.01
  27   1    -0.00   0.05  -0.00     0.00   0.00   0.01    -0.00  -0.00  -0.01
  28   1     0.01  -0.05   0.00    -0.00  -0.01  -0.06     0.00   0.02   0.22
  29   1     0.08  -0.01   0.00    -0.00   0.00   0.03     0.00  -0.02  -0.21
  30   1     0.06   0.03  -0.00    -0.00   0.00   0.06     0.00  -0.02  -0.21
  31   1    -0.01  -0.01  -0.00    -0.00  -0.00  -0.04     0.00   0.02   0.21
  32   6    -0.01   0.15  -0.01     0.00   0.00   0.06    -0.00  -0.00  -0.05
  33   6    -0.03   0.11  -0.01     0.00   0.00   0.05    -0.00  -0.00  -0.04
  34   6     0.03   0.11  -0.01    -0.00   0.00   0.06     0.00  -0.00  -0.02
  35   6     0.01   0.15  -0.01    -0.00   0.01   0.07     0.00  -0.00  -0.03
  36  16     0.35  -0.33   0.03    -0.00  -0.01  -0.17     0.00  -0.00   0.01
  37   1    -0.04  -0.07   0.01    -0.00  -0.01  -0.15    -0.00  -0.00  -0.01
  38   1     0.04  -0.07   0.01    -0.00  -0.01  -0.06     0.00   0.01   0.13
                      4                      5
                        a                      a
 Frequencies --    32.4986                32.6780
 Red. masses --    15.4042                17.8718
 Frc consts  --     0.0000                 0.0000
 IR Inten    --     0.1030                 0.0007
 Raman Activ --     0.0000                 0.0000
 Depolar     --     0.0000                 0.0000
 Atom AN      X      Y      Z        X      Y      Z
   1  16    -0.00  -0.03  -0.36    -0.00  -0.04  -0.37
   2   6     0.00   0.02   0.20     0.00   0.02   0.23
   3   6     0.00   0.01   0.11     0.00   0.02   0.20
   4   6     0.00  -0.00  -0.01     0.00   0.01   0.08
   5   6     0.00  -0.00  -0.03    -0.00  -0.00  -0.02
   6   6     0.00   0.01   0.09    -0.00   0.00   0.03
   7   6     0.00   0.02   0.20     0.00   0.01   0.15
   8   6    -0.00  -0.03  -0.27    -0.00  -0.01  -0.13
   9   6     0.00   0.00   0.04     0.00  -0.01  -0.14
  10   6     0.00   0.02   0.21     0.00  -0.00  -0.02
  11   6     0.00   0.01   0.06     0.00   0.01   0.14
  12   6    -0.00  -0.02  -0.25    -0.00   0.02   0.16
  13   6    -0.00  -0.04  -0.41    -0.00   0.00   0.03
  14   6     0.00   0.01   0.09     0.00  -0.00  -0.04
  15   6    -0.00  -0.00  -0.02    -0.00   0.00   0.03
  16   6    -0.00  -0.00  -0.02    -0.00  -0.01  -0.08
  17   6    -0.00   0.01   0.08    -0.00  -0.02  -0.22
  18   6     0.00   0.01   0.16     0.00  -0.02  -0.25
  19   6     0.00   0.02   0.18     0.00  -0.02  -0.18
  20   1     0.00   0.00   0.03     0.00   0.01   0.08
  21   1     0.00  -0.00  -0.03     0.00   0.00   0.01
  22   1    -0.00   0.00   0.03    -0.00  -0.00  -0.01
  23   1     0.00   0.01   0.08    -0.00   0.01   0.05
  24   1    -0.00  -0.01  -0.12    -0.00  -0.01  -0.07
  25   1     0.00   0.01   0.13     0.00  -0.00  -0.01
  26   1    -0.00  -0.01  -0.11    -0.00   0.01   0.08
  27   1    -0.00  -0.02  -0.19    -0.00   0.00   0.01
  28   1     0.00   0.00   0.03     0.00   0.00   0.01
  29   1    -0.00  -0.00  -0.03    -0.00  -0.00  -0.01
  30   1    -0.00   0.00   0.02    -0.00  -0.01  -0.08
  31   1     0.00   0.01   0.07     0.00  -0.01  -0.06
  32   6     0.00   0.02   0.18     0.00   0.02   0.23
  33   6     0.00   0.02   0.22     0.00   0.03   0.27
  34   6     0.00   0.02   0.18     0.00  -0.03  -0.29
  35   6     0.00   0.01   0.15     0.00  -0.02  -0.25
  36  16    -0.00  -0.03  -0.30    -0.00   0.04   0.42
  37   1    -0.00  -0.01  -0.05    -0.00  -0.01  -0.08
  38   1    -0.00  -0.00  -0.04     0.00   0.01   0.09
                      6                      7
                        a                      a