 Entering Gaussian System
 
 *********************************************
 Gaussian 98:  ??? No! this is from SPONGEBOB
 
 *********************************************
 
 
                          Standard orientation:
 ---------------------------------------------------------------------
 Center     Atomic     Atomic              Coordinates (Angstroms)
 Number     Number      Type              X           Y           Z
 ---------------------------------------------------------------------
       1      79       0            -2.513219   -4.327499  -10.399024
       2      79       0            -2.513219   -1.442500  -10.399024
       3      79       0            -2.513219    4.327499  -10.399024
       4      79       0            -2.513219    1.442500  -10.399024
       5      79       0            -0.014735   -2.884999  -10.399024
       6      79       0            -0.014735    2.884999  -10.399024
       7      79       0            -0.014735    0.000000  -10.399024
       8      79       0             2.483749    1.442500  -10.399024
       9      79       0             2.483749   -1.442500  -10.399024
      10      79       0             4.982229    0.000000  -10.399024
      11      79       0            -1.680390   -2.884999   -8.043435
      12      79       0            -1.680390    2.884999   -8.043435
      13      79       0            -1.680390    0.000000   -8.043435
      14      79       0             0.818093   -1.442500   -8.043435
      15      79       0             0.818093    1.442500   -8.043435
      16      79       0             3.316579    0.000000   -8.043435
      17      79       0            -0.896368   -1.512488   -5.770144
      18      79       0            -0.896365    1.512479   -5.770142
      19      79       0             1.733269   -0.000001   -5.771024
      20      79       0            -0.025142   -0.000016   -3.603914
      21      79       0             0.098045   -0.000028   -1.228250
      22      79       0             0.653941   -0.835559   -0.996795
      23      79       0             0.653947    0.835507   -0.996803
      24      79       0            -1.181566   -0.000012   -0.585174
      25      79       0            -1.831348    1.213868   -0.294079
      26      79       0            -3.102121    1.213895    0.291585
      27      79       0            -3.751547    0.000029    0.583472
      28      79       0            -3.102098   -1.213855    0.291715
      29      79       0            -1.831324   -1.213870   -0.293946
      30      79       0            -1.341536    2.172993   -0.528537
      31      79       0            -3.592043    2.173013    0.525877
      32      79       0            -3.592013   -2.172953    0.526110
      33      79       0            -1.341494   -2.173012   -0.528292
      34      79       0            -5.586399    0.835608    0.998794
      35      79       0            -5.586361   -0.835583    0.998845
      36      79       0            -5.029967    0.000032    1.228789
      37      79       0            -4.897517    0.000033    3.604084
      38      79       0            -4.024586    1.512182    5.770003
      39      79       0            -4.024593   -1.512166    5.769995
      40      79       0            -6.654950    0.000004    5.771335
      41      79       0            -3.240410    2.885000    8.043424
      42      79       0            -3.240410   -2.885000    8.043424
      43      79       0            -3.240410   -0.000004    8.043424
      44      79       0            -5.738900    1.442500    8.043424
      45      79       0            -5.738900   -1.442500    8.043424
      46      79       0            -8.237380   -0.000004    8.043424
      47      79       0            -2.407580    4.327490   10.399024
      48      79       0            -2.407580    1.442500   10.399024
      49      79       0            -2.407580   -4.327500   10.399024
      50      79       0            -2.407580   -1.442500   10.399024
      51      79       0            -4.906070    2.885000   10.399024
      52      79       0            -4.906070   -2.885000   10.399024
      53      79       0            -4.906070   -0.000004   10.399024
      54      79       0            -7.404550   -1.442500   10.399024
      55      79       0            -7.404550    1.442500   10.399024
      56      79       0            -9.903030   -0.000004   10.399024
 --------------------------------------------------------------------- 

Harmonic frequencies (cm**-1), IR intensities (KM/Mole),
 Raman scattering activities (A**4/AMU), Raman depolarization ratios,
 reduced masses (AMU), force constants (mDyne/A) and normal coordinates:
                     1                     2                     3
                     a                     a                     a
 Frequencies --    426.8588            426.8407            417.4276
 Red. masses --   196.9700               196.9700               196.9700
 Frc consts  --     0.0000                 0.0000                 0.0000
 IR Inten    --     0.0000                 0.0000                 0.0000
 Raman Activ --     0.0000                 0.0000                 0.0000
 Depolar     --     0.0000                 0.0000                 0.0000
 Atom AN      X      Y      Z        X      Y      Z        X      Y      Z
   1  79    0.00   0.00   0.00     0.00   0.00   0.00     0.00   0.00   0.00
   2  79    0.00   0.00   0.00     0.00   0.00   0.00     0.00   0.00   0.00
   3  79    0.00   0.00   0.00     0.00   0.00   0.00     0.00   0.00   0.00
   4  79    0.00   0.00   0.00     0.00   0.00   0.00     0.00   0.00   0.00
                     4                     5                     6
                     a                     a                     a
                     1                     2                     3
                     a                     a                     a
 Frequencies --    42.8588            50.8407            17.4276
 Red. masses --   196.9700               196.9700               196.9700
 Frc consts  --     0.0000                 0.0000                 0.0000
 IR Inten    --     0.0000                 0.0000                 0.0000
 Raman Activ --     0.0000                 0.0000                 0.0000
 Depolar     --     0.0000                 0.0000                 0.0000
 Atom AN      X      Y      Z        X      Y      Z        X      Y      Z
   1  79    0.00   0.00   0.00     0.00   0.00   0.00     0.00   0.00   0.00
   2  79    0.00   0.00   0.00     0.00   0.00   0.00     0.00   0.00   0.00
   3  79    0.00   0.00   0.00     0.00   0.00   0.00     0.00   0.00   0.00
   4  79    0.00   0.00   0.00     0.00   0.00   0.00     0.00   0.00   0.00
                     4                     5                     6
                     a                     a                     a